/*--------------------------------*- C++ -*----------------------------------*\
| =========                 |                                                 |
| \\      /  F ield         | OpenFOAM: The Open Source CFD Toolbox           |
|  \\    /   O peration     | Version:  2.3.x                                 |
|   \\  /    A nd           | Web:      www.OpenFOAM.org                      |
|    \\/     M anipulation  |                                                 |
\*---------------------------------------------------------------------------*/
FoamFile
{
    version     2.0;
    format      binary;
    class       polyBoundaryMesh;
    location    "constant/polyMesh";
    object      boundary;
}
// * * * * * * * * * * * * * * * * * * * * * * * * * * * * * * * * * * * * * //

4
(
    ibCylinder
    {
        type            immersedBoundary;
        nFaces          0;
        startFace       4900;

        internalFlow    no;
        IBSurfaceCoffs
        {
            type        staticIBSurface;
        }
    }
    movingWall
    {
        type            wall;
        nFaces          50;
        startFace       4900;
    }
    fixedWalls
    {
        type            wall;
        nFaces          150;
        startFace       4950;
    }
    frontAndBack
    {
        type            empty;
        nFaces          5000;
        startFace       5100;
    }
)

// ************************************************************************* //
