/*--------------------------------*- C++ -*----------------------------------*\
| =========                 |                                                 |
| \\      /  F ield         | OpenFOAM: The Open Source CFD Toolbox           |
|  \\    /   O peration     | Version:  2.3.x                                 |
|   \\  /    A nd           | Web:      www.OpenFOAM.org                      |
|    \\/     M anipulation  |                                                 |
\*---------------------------------------------------------------------------*/
FoamFile
{
    version     2.0;
    format      ascii;
    class       polyBoundaryMesh;
    location    "constant/polyMesh";
    object      boundary;
}
// * * * * * * * * * * * * * * * * * * * * * * * * * * * * * * * * * * * * * //

6
(
    ibCylinder
    {
        type            immersedBoundary;
        nFaces          0;
        startFace       11100;

        internalFlow    no;
        IBSurfaceCoffs
        {
            type        staticIBSurface;
        }
    }
    left
    {
        type            patch;
        nFaces          75;
        startFace       11100;
    }
    right
    {
        type            patch;
        nFaces          75;
        startFace       11175;
    }
    top
    {
        type            patch;
        nFaces          75;
        startFace       11250;
    }
    bottom
    {
        type            patch;
        nFaces          75;
        startFace       11325;
    }
    frontAndBack
    {
        type            empty;
        nFaces          11250;
        startFace       11400;
    }
)

// ************************************************************************* //
