/*--------------------------------*- C++ -*----------------------------------*\
| =========                 |                                                 |
| \\      /  F ield         | OpenFOAM: The Open Source CFD Toolbox           |
|  \\    /   O peration     | Version:  2.3.x                                 |
|   \\  /    A nd           | Web:      www.OpenFOAM.org                      |
|    \\/     M anipulation  |                                                 |
\*---------------------------------------------------------------------------*/
FoamFile
{
    version     2.0;
    format      ascii;
    class       polyBoundaryMesh;
    location    "constant/polyMesh";
    object      boundary;
}
// * * * * * * * * * * * * * * * * * * * * * * * * * * * * * * * * * * * * * //

6
(
    ibCylinder
    {
        type            immersedBoundary;
        nFaces          0;
        startFace       59600;

        internalFlow    no;
        IBSurfaceCoffs
        {
            type        staticIBSurface;
        }
    }
    in
    {
        type            patch;
        nFaces          100;
        startFace       59600;
    }
    out
    {
        type            patch;
        nFaces          100;
        startFace       59700;
    }
    top
    {
        type            patch;
        nFaces          300;
        startFace       59800;
    }
    bottom
    {
        type            patch;
        nFaces          300;
        startFace       60100;
    }
    frontAndBack
    {
        type            empty;
        nFaces          60000;
        startFace       60400;
    }
)

// ************************************************************************* //
