/*--------------------------------*- C++ -*----------------------------------*\
| =========                 |                                                 |
| \\      /  F ield         | OpenFOAM: The Open Source CFD Toolbox           |
|  \\    /   O peration     | Version:  2.3.x                                 |
|   \\  /    A nd           | Web:      www.OpenFOAM.org                      |
|    \\/     M anipulation  |                                                 |
\*---------------------------------------------------------------------------*/
FoamFile
{
    version     2.0;
    format      binary;
    class       polyBoundaryMesh;
    location    "constant/polyMesh";
    object      boundary;
}
// * * * * * * * * * * * * * * * * * * * * * * * * * * * * * * * * * * * * * //

6
(
    ibCylinder
    {
        type            immersedBoundary;
        nFaces          0;
        startFace       16020;

        internalFlow    no;
        IBSurfaceCoffs
        {
            type        staticIBSurface;
        }
    }
    top
    {
        type            patch;
        nFaces          90;
        startFace       16020;
    }
    inlet
    {
        type            patch;
        nFaces          90;
        startFace       16110;
    }
    outlet
    {
        type            patch;
        nFaces          90;
        startFace       16200;
    }
    bottom
    {
        type            patch;
        nFaces          90;
        startFace       16290;
    }
    frontAndBack
    {
        type            empty;
        nFaces          16200;
        startFace       16380;
    }
)

// ************************************************************************* //
